title="aero loads for ddfdrive"
variables="x","y","z","id","cp","cfx","cfy","cfz","temp","dtdn"
zone t="mdo boundary 3", i=9644, j=19183, f=fepoint,  solutiontime= 0.1000000E+02, strandid=0
   0.119460800000025E+001  0.246104800000386E+001  0.270027600000426E+000      23118 -0.361708060191891E+000  0.000000000000000E+000  0.000000000000000E+000  0.000000000000000E+000  0.999122239932373E+000  0.000000000000000E+000
   0.110732199999839E+001  0.231868300000201E+001  0.253389000012577E+000      23484 -0.316735638020488E+000  0.000000000000000E+000  0.000000000000000E+000  0.000000000000000E+000  0.999644468441244E+000  0.000000000000000E+000
   0.106800700000042E+001  0.237554700000607E+001  0.236628200097859E+000      23946 -0.528538519857181E-001  0.000000000000000E+000  0.000000000000000E+000  0.000000000000000E+000  0.100483132311114E+001  0.000000000000000E+000
   0.107032500000177E+001  0.232751899999761E+001  0.241370000113919E+000      24838 -0.214881512363326E+000  0.000000000000000E+000  0.000000000000000E+000  0.000000000000000E+000  0.100097129504095E+001  0.000000000000000E+000
   0.110175500000042E+001  0.241477799999575E+001  0.245687300005913E+000      23002 -0.147100496173233E+000  0.000000000000000E+000  0.000000000000000E+000  0.000000000000000E+000  0.100222184482733E+001  0.000000000000000E+000
   0.107567900000084E+001  0.244175399999761E+001  0.233212499697283E+000      23857 -0.197841183538373E-001  0.000000000000000E+000  0.000000000000000E+000  0.000000000000000E+000  0.100537383952178E+001  0.000000000000000E+000
   0.118873500000084E+001  0.234237200000048E+001  0.271674900177136E+000      24923 -0.428454540449739E+000  0.000000000000000E+000  0.000000000000000E+000  0.000000000000000E+000  0.998009842845166E+000  0.000000000000000E+000
   0.122432799999458E+001  0.238610300000048E+001  0.277802500205413E+000      23511 -0.454573245836245E+000  0.000000000000000E+000  0.000000000000000E+000  0.000000000000000E+000  0.997031046840394E+000  0.000000000000000E+000
   0.118573000000262E+001  0.241203100000776E+001  0.269223400036424E+000      24291 -0.371331093858779E+000  0.000000000000000E+000  0.000000000000000E+000  0.000000000000000E+000  0.998533473896648E+000  0.000000000000000E+000
   0.115904799999932E+001  0.236652400000708E+001  0.264719200084671E+000      23377 -0.383784867331021E+000  0.000000000000000E+000  0.000000000000000E+000  0.000000000000000E+000  0.998946647583159E+000  0.000000000000000E+000
   0.124172499999492E+001  0.243337300001232E+001  0.280529300341815E+000      23770 -0.446532522411932E+000  0.000000000000000E+000  0.000000000000000E+000  0.000000000000000E+000  0.996357684981939E+000  0.000000000000000E+000
   0.102490300000029E+001  0.221625300000235E+001  0.234221100093171E+000      23020 -0.186594304807357E+000  0.000000000000000E+000  0.000000000000000E+000  0.000000000000000E+000  0.100211163706971E+001  0.000000000000000E+000
   0.106859700000101E+001  0.221703700000201E+001  0.247653600306809E+000      23815 -0.310882518970437E+000  0.000000000000000E+000  0.000000000000000E+000  0.000000000000000E+000  0.999577499486683E+000  0.000000000000000E+000
   0.108587900000194E+001  0.206492500000336E+001  0.256057200120464E+000      24453 -0.456975057917863E+000  0.000000000000000E+000  0.000000000000000E+000  0.000000000000000E+000  0.996691660601185E+000  0.000000000000000E+000
   0.104274199999966E+001  0.205737000000675E+001  0.247266300088570E+000      23098 -0.387111540703680E+000  0.000000000000000E+000  0.000000000000000E+000  0.000000000000000E+000  0.998402365396200E+000  0.000000000000000E+000
   0.989132299999955E+000  0.223304000000337E+001  0.219009499968812E+000      24697  0.284314369167252E-001  0.000000000000000E+000  0.000000000000000E+000  0.000000000000000E+000  0.100678332435628E+001  0.000000000000000E+000
   0.102218000000017E+001  0.225195100000337E+001  0.230451199978381E+000      24866 -0.140787764312926E+000  0.000000000000000E+000  0.000000000000000E+000  0.000000000000000E+000  0.100334476231427E+001  0.000000000000000E+000
   0.991741300001289E+000  0.227443300000456E+001  0.215182700042084E+000      23365  0.860703179570979E-001  0.000000000000000E+000  0.000000000000000E+000  0.000000000000000E+000  0.100624696379946E+001  0.000000000000000E+000
   0.986901100000463E+000  0.219169100000253E+001  0.222414800134376E+000      24361 -0.131663882143618E+000  0.000000000000000E+000  0.000000000000000E+000  0.000000000000000E+000  0.100284629367134E+001  0.000000000000000E+000
   0.912924000001010E+000  0.171229200000117E+001  0.227845199961498E+000      24099 -0.420185634817511E+000  0.000000000000000E+000  0.000000000000000E+000  0.000000000000000E+000  0.997729806280536E+000  0.000000000000000E+000
   0.988807900000840E+000  0.174607700000235E+001  0.241659099930435E+000      24657 -0.450807104106809E+000  0.000000000000000E+000  0.000000000000000E+000  0.000000000000000E+000  0.996747709937370E+000  0.000000000000000E+000
   0.974829700005325E+000  0.180065699998916E+001  0.238805099997476E+000      23677 -0.450500069633421E+000  0.000000000000000E+000  0.000000000000000E+000  0.000000000000000E+000  0.997851209172418E+000  0.000000000000000E+000
   0.957419599998217E+000  0.171840700000523E+001  0.236752699949920E+000      24168 -0.467236622564408E+000  0.000000000000000E+000  0.000000000000000E+000  0.000000000000000E+000  0.996360940761126E+000  0.000000000000000E+000
   0.101663100000228E+001  0.190597100000184E+001  0.245266100068912E+000      23079 -0.434992502682009E+000  0.000000000000000E+000  0.000000000000000E+000  0.000000000000000E+000  0.996946667513064E+000  0.000000000000000E+000
   0.971771399999489E+000  0.193632700000050E+001  0.234287100073308E+000      23848 -0.356912205496284E+000  0.000000000000000E+000  0.000000000000000E+000  0.000000000000000E+000  0.998185929637725E+000  0.000000000000000E+000
   0.103085399999957E+001  0.195280699999507E+001  0.247177700111553E+000      24128 -0.445440883221843E+000  0.000000000000000E+000  0.000000000000000E+000  0.000000000000000E+000  0.996564313774164E+000  0.000000000000000E+000
   0.856548999999702E+000  0.191416899999711E+001  0.197114600098938E+000      23247 -0.331740418080127E-004  0.000000000000000E+000  0.000000000000000E+000  0.000000000000000E+000  0.100557449147488E+001  0.000000000000000E+000
   0.892262899999996E+000  0.194039400000219E+001  0.209097800019920E+000      24343 -0.111515110780967E+000  0.000000000000000E+000  0.000000000000000E+000  0.000000000000000E+000  0.100287123023283E+001  0.000000000000000E+000
   0.748624599999870E+000  0.144758400000253E+001  0.196644900031745E+000      23785 -0.344819296063354E+000  0.000000000000000E+000  0.000000000000000E+000  0.000000000000000E+000  0.998162117369224E+000  0.000000000000000E+000
   0.704825599999956E+000  0.147053799999974E+001  0.180359999880217E+000      23977 -0.122622518622522E+000  0.000000000000000E+000  0.000000000000000E+000  0.000000000000000E+000  0.100175844151931E+001  0.000000000000000E+000
   0.248639799987362E-001  0.000000000000000E+000  0.432783000020972E-001       3275  0.218397747831542E+000  0.000000000000000E+000  0.000000000000000E+000  0.000000000000000E+000  0.100231634680946E+001  0.000000000000000E+000
   0.860359900150728E-002  0.000000000000000E+000  0.271738900061147E-001       3271  0.256610676332215E+000  0.000000000000000E+000  0.000000000000000E+000  0.000000000000000E+000  0.100652578728603E+001  0.000000000000000E+000
   0.151080099981865E-001  0.000000000000000E+000  0.345473200047202E-001       3273  0.185865438142749E+000  0.000000000000000E+000  0.000000000000000E+000  0.000000000000000E+000  0.100558419738068E+001  0.000000000000000E+000
   0.666626499867300E-002  0.000000000000000E+000  0.245294399950737E-001       3270  0.313471176600539E+000  0.000000000000000E+000  0.000000000000000E+000  0.000000000000000E+000  0.100724160648355E+001  0.000000000000000E+000
   0.353827799972133E-001  0.000000000000000E+000  0.510279600018375E-001       3276  0.173925836250505E+000  0.000000000000000E+000  0.000000000000000E+000  0.000000000000000E+000  0.100557529495960E+001  0.000000000000000E+000
   0.106683000033051E-001  0.000000000000000E+000  0.297094700060291E-001       3272  0.237027379542039E+000  0.000000000000000E+000  0.000000000000000E+000  0.000000000000000E+000  0.100597787524861E+001  0.000000000000000E+000
   0.488341700070351E-002  0.000000000000000E+000  0.217880600042967E-001       3269  0.279475999660542E+000  0.000000000000000E+000  0.000000000000000E+000  0.000000000000000E+000  0.100663402256785E+001  0.000000000000000E+000
   0.931215699997928E-001  0.000000000000000E+000  0.817728899927554E-001       3279  0.166275241489510E+000  0.000000000000000E+000  0.000000000000000E+000  0.000000000000000E+000  0.100561847025134E+001  0.000000000000000E+000
   0.463893999987359E-001  0.000000000000000E+000  0.582210600014268E-001       3277  0.181965686330137E+000  0.000000000000000E+000  0.000000000000000E+000  0.000000000000000E+000  0.100587823560209E+001  0.000000000000000E+000
   0.198654600009359E-001  0.000000000000000E+000  0.390428699992625E-001       3274  0.174159459970144E+000  0.000000000000000E+000  0.000000000000000E+000  0.000000000000000E+000  0.100532387376565E+001  0.000000000000000E+000
   0.693516000002588E-001  0.000000000000000E+000  0.707992400010037E-001       3278  0.214023915619635E+000  0.000000000000000E+000  0.000000000000000E+000  0.000000000000000E+000  0.100690698936500E+001  0.000000000000000E+000
   0.176752100000000E+001  0.387298300000000E+001  0.297943699999989E+000      32035 -0.211128941551453E+000  0.000000000000000E+000  0.000000000000000E+000  0.000000000000000E+000  0.999804807760856E+000  0.000000000000000E+000
   0.170661300000000E+001  0.387298300000000E+001  0.287415000000000E+000      32038 -0.399093302651905E+000  0.000000000000000E+000  0.000000000000000E+000  0.000000000000000E+000  0.997709259087672E+000  0.000000000000000E+000
   0.172567400000072E+001  0.387254900001315E+001  0.349733600186408E+000      22518 -0.125103868132871E+000  0.000000000000000E+000  0.000000000000000E+000  0.000000000000000E+000  0.100096092806177E+001  0.000000000000000E+000
   0.178671900000131E+001  0.387252300001890E+001  0.364515999823958E+000      22517 -0.154436141419647E+000  0.000000000000000E+000  0.000000000000000E+000  0.000000000000000E+000  0.999694909959137E+000  0.000000000000000E+000
   0.174830100000000E+001  0.387298300000000E+001  0.237922300000011E+000      27460 -0.251299881767288E+000  0.000000000000000E+000  0.000000000000000E+000  0.000000000000000E+000  0.999106387074190E+000  0.000000000000000E+000
   0.168753800000000E+001  0.387298300000000E+001  0.231695100000001E+000      27459 -0.327011688489178E+000  0.000000000000000E+000  0.000000000000000E+000  0.000000000000000E+000  0.998478666166117E+000  0.000000000000000E+000
   0.180888000000000E+001  0.387298300000000E+001  0.245769000000000E+000      27461 -0.176624434106212E+000  0.000000000000000E+000  0.000000000000000E+000  0.000000000000000E+000  0.999886609251958E+000  0.000000000000000E+000
   0.166614899999975E+001  0.387261500002094E+001  0.329686299950272E+000      22519 -0.171299243254148E+000  0.000000000000000E+000  0.000000000000000E+000  0.000000000000000E+000  0.100078781958302E+001  0.000000000000000E+000
   0.184863700000169E+001  0.387248000001162E+001  0.375255799995214E+000      22516 -0.160400240994793E+000  0.000000000000000E+000  0.000000000000000E+000  0.000000000000000E+000  0.999326751459200E+000  0.000000000000000E+000
   0.219866200000000E+001  0.387298300000000E+001  0.333921300000011E+000      32044  0.108632993573252E+000  0.000000000000000E+000  0.000000000000000E+000  0.000000000000000E+000  0.100331027128956E+001  0.000000000000000E+000
   0.216226800000118E+001  0.387238799995137E+001  0.384864399880856E+000      22511 -0.849154331117386E-001  0.000000000000000E+000  0.000000000000000E+000  0.000000000000000E+000  0.999910317850715E+000  0.000000000000000E+000
   0.222500200000118E+001  0.387238299997150E+001  0.381252400109291E+000      22510 -0.720248781712473E-001  0.000000000000000E+000  0.000000000000000E+000  0.000000000000000E+000  0.100008240047891E+001  0.000000000000000E+000
   0.228763800000287E+001  0.387238700000196E+001  0.376216800091535E+000      22509 -0.544406756392409E-001  0.000000000000000E+000  0.000000000000000E+000  0.000000000000000E+000  0.100051587462980E+001  0.000000000000000E+000
   0.235013600000025E+001  0.387239000002480E+001  0.369691300096363E+000      22508 -0.227128866202111E-001  0.000000000000000E+000  0.000000000000000E+000  0.000000000000000E+000  0.100096371116469E+001  0.000000000000000E+000
   0.201359900000000E+001  0.387298300000000E+001  0.325277699999989E+000      32036 -0.114493583477679E-001  0.000000000000000E+000  0.000000000000000E+000  0.000000000000000E+000  0.100176222686244E+001  0.000000000000000E+000
   0.197380900000025E+001  0.387242800002312E+001  0.385869500374675E+000      22514 -0.109743695814106E+000  0.000000000000000E+000  0.000000000000000E+000  0.000000000000000E+000  0.999839448867200E+000  0.000000000000000E+000
   0.203663000000287E+001  0.387241300002531E+001  0.387305000215203E+000      22513 -0.951734389857290E-001  0.000000000000000E+000  0.000000000000000E+000  0.000000000000000E+000  0.999921895586346E+000  0.000000000000000E+000
   0.191107800000059E+001  0.387243500001821E+001  0.382219300152332E+000      22515 -0.105358276639541E+000  0.000000000000000E+000  0.000000000000000E+000  0.000000000000000E+000  0.100003480016767E+001  0.000000000000000E+000
   0.195193000000000E+001  0.387298300000000E+001  0.320032000000000E+000      32037 -0.428370562624943E-001  0.000000000000000E+000  0.000000000000000E+000  0.000000000000000E+000  0.100176414805885E+001  0.000000000000000E+000
   0.182877700000000E+001  0.387298300000000E+001  0.307164300000011E+000      32033 -0.146164500162743E+000  0.000000000000000E+000  0.000000000000000E+000  0.000000000000000E+000  0.100075011217890E+001  0.000000000000000E+000
   0.189026100000000E+001  0.387298300000000E+001  0.314786300000011E+000      32034 -0.988230541633900E-001  0.000000000000000E+000  0.000000000000000E+000  0.000000000000000E+000  0.100092932829639E+001  0.000000000000000E+000
   0.192992300000000E+001  0.387298300000000E+001  0.262326699999989E+000      27463 -0.117001030116067E+000  0.000000000000000E+000  0.000000000000000E+000  0.000000000000000E+000  0.100033260189713E+001  0.000000000000000E+000
   0.199051200000000E+001  0.387298300000000E+001  0.270097799999998E+000      27464 -0.849187541672470E-001  0.000000000000000E+000  0.000000000000000E+000  0.000000000000000E+000  0.100062459546593E+001  0.000000000000000E+000
   0.186939200000000E+001  0.387298300000000E+001  0.254116000000000E+000      27462 -0.133480334554726E+000  0.000000000000000E+000  0.000000000000000E+000  0.000000000000000E+000  0.100021715107935E+001  0.000000000000000E+000
   0.253646500000033E+001  0.387240400001499E+001  0.341309200049758E+000      22505  0.456484304937571E-001  0.000000000000000E+000  0.000000000000000E+000  0.000000000000000E+000  0.100236463492744E+001  0.000000000000000E+000
   0.172768899999966E+001  0.359626400001890E+001  0.356382499841422E+000      23956 -0.402561208579600E+000  0.000000000000000E+000  0.000000000000000E+000  0.000000000000000E+000  0.996341714008683E+000  0.000000000000000E+000
   0.174069100000067E+001  0.364008300002160E+001  0.358229100096405E+000      24594 -0.383242928442259E+000  0.000000000000000E+000  0.000000000000000E+000  0.000000000000000E+000  0.996777170195370E+000  0.000000000000000E+000
   0.170624899999745E+001  0.313879899999792E+001  0.341657600087255E+000      23123 -0.467639132624339E+000  0.000000000000000E+000  0.000000000000000E+000  0.000000000000000E+000  0.995427568124697E+000  0.000000000000000E+000
   0.165654299999745E+001  0.313123900000689E+001  0.339325299960941E+000      24048 -0.494361939808211E+000  0.000000000000000E+000  0.000000000000000E+000  0.000000000000000E+000  0.995369754241740E+000  0.000000000000000E+000
   0.171896299999813E+001  0.317662099999792E+001  0.343865000051051E+000      24856 -0.466493757628723E+000  0.000000000000000E+000  0.000000000000000E+000  0.000000000000000E+000  0.995477963719965E+000  0.000000000000000E+000
   0.166953099999847E+001  0.316906900000959E+001  0.341282299960077E+000      24982 -0.475697862474869E+000  0.000000000000000E+000  0.000000000000000E+000  0.000000000000000E+000  0.995798053786917E+000  0.000000000000000E+000
   0.135926899999907E+001  0.292999300000910E+001  0.293466599843353E+000      23537 -0.278770507449322E+000  0.000000000000000E+000  0.000000000000000E+000  0.000000000000000E+000  0.999825501134748E+000  0.000000000000000E+000
   0.149038699999932E+001  0.318677500002094E+001  0.316696400081336E+000      23941 -0.356858211079924E+000  0.000000000000000E+000  0.000000000000000E+000  0.000000000000000E+000  0.999634210366303E+000  0.000000000000000E+000
   0.145947300000008E+001  0.322462900000267E+001  0.306968800069153E+000      23884 -0.249889499272875E+000  0.000000000000000E+000  0.000000000000000E+000  0.000000000000000E+000  0.100075994998786E+001  0.000000000000000E+000
   0.152172700000228E+001  0.314707000000216E+001  0.323851300493091E+000      23771 -0.414726248570417E+000  0.000000000000000E+000  0.000000000000000E+000  0.000000000000000E+000  0.997887414859806E+000  0.000000000000000E+000
   0.150918099999873E+001  0.323721599999590E+001  0.319526000133634E+000      24109 -0.356870961690156E+000  0.000000000000000E+000  0.000000000000000E+000  0.000000000000000E+000  0.998846888155735E+000  0.000000000000000E+000
   0.143408400000084E+001  0.327319100001079E+001  0.295212300095648E+000      24295 -0.128492318190370E+000  0.000000000000000E+000  0.000000000000000E+000  0.000000000000000E+000  0.100306084101736E+001  0.000000000000000E+000
   0.147864000000084E+001  0.327508200001079E+001  0.309826499818653E+000      22889 -0.226443905339741E+000  0.000000000000000E+000  0.000000000000000E+000  0.000000000000000E+000  0.100191300750179E+001  0.000000000000000E+000
   0.141457000000072E+001  0.322278100000995E+001  0.292339899769574E+000      23744 -0.102446534657406E+000  0.000000000000000E+000  0.000000000000000E+000  0.000000000000000E+000  0.100314347585777E+001  0.000000000000000E+000
   0.144032999999983E+001  0.317423599999337E+001  0.304129400117367E+000      22888 -0.261884251918323E+000  0.000000000000000E+000  0.000000000000000E+000  0.000000000000000E+000  0.100210447592474E+001  0.000000000000000E+000
   0.147055599999940E+001  0.313356999999827E+001  0.313339699858010E+000      23906 -0.364356166384053E+000  0.000000000000000E+000  0.000000000000000E+000  0.000000000000000E+000  0.998950724951444E+000  0.000000000000000E+000
   0.150261800000160E+001  0.309475900001248E+001  0.320887400055587E+000      23080 -0.422926402331768E+000  0.000000000000000E+000  0.000000000000000E+000  0.000000000000000E+000  0.996840036456022E+000  0.000000000000000E+000
   0.141973800000097E+001  0.312003300000369E+001  0.301029099856347E+000      23705 -0.258420850091733E+000  0.000000000000000E+000  0.000000000000000E+000  0.000000000000000E+000  0.999750534929318E+000  0.000000000000000E+000
   0.139310400000002E+001  0.316735599999709E+001  0.288728199780256E+000      24055 -0.721391883449354E-001  0.000000000000000E+000  0.000000000000000E+000  0.000000000000000E+000  0.100557606720632E+001  0.000000000000000E+000
   0.145071299999907E+001  0.308031300000859E+001  0.310328500061214E+000      23822 -0.348640712280779E+000  0.000000000000000E+000  0.000000000000000E+000  0.000000000000000E+000  0.998251295907488E+000  0.000000000000000E+000
   0.139914299999746E+001  0.306582399998981E+001  0.297918599990934E+000      22887 -0.284714018821487E+000  0.000000000000000E+000  0.000000000000000E+000  0.000000000000000E+000  0.999993225231069E+000  0.000000000000000E+000
   0.137212200000036E+001  0.311315100000674E+001  0.285874299447864E+000      23791 -0.109028544820494E+000  0.000000000000000E+000  0.000000000000000E+000  0.000000000000000E+000  0.100194478796089E+001  0.000000000000000E+000
   0.158155300000025E+001  0.322445499999132E+001  0.333457899952322E+000      24194 -0.441469670666702E+000  0.000000000000000E+000  0.000000000000000E+000  0.000000000000000E+000  0.997348020169090E+000  0.000000000000000E+000
   0.157356299999746E+001  0.330443400000487E+001  0.331629000070363E+000      24965 -0.401281010405847E+000  0.000000000000000E+000  0.000000000000000E+000  0.000000000000000E+000  0.998169895831123E+000  0.000000000000000E+000
   0.161151400000092E+001  0.329973200000875E+001  0.338128800091684E+000      23953 -0.434577817936841E+000  0.000000000000000E+000  0.000000000000000E+000  0.000000000000000E+000  0.997079000856431E+000  0.000000000000000E+000
   0.156754899999873E+001  0.327251699999590E+001  0.330848700022548E+000      23358 -0.418110680469896E+000  0.000000000000000E+000  0.000000000000000E+000  0.000000000000000E+000  0.997633474108009E+000  0.000000000000000E+000
   0.159425000000135E+001  0.334561100001552E+001  0.335007200058699E+000      23143 -0.416181169417522E+000  0.000000000000000E+000  0.000000000000000E+000  0.000000000000000E+000  0.997241855812384E+000  0.000000000000000E+000
   0.162214899999847E+001  0.324950400000418E+001  0.339217099773139E+000      24005 -0.449067359870882E+000  0.000000000000000E+000  0.000000000000000E+000  0.000000000000000E+000  0.996506699149228E+000  0.000000000000000E+000
   0.155468999999915E+001  0.310920899999623E+001  0.328988499905080E+000      23853 -0.458572350986453E+000  0.000000000000000E+000  0.000000000000000E+000  0.000000000000000E+000  0.996212856531872E+000  0.000000000000000E+000
   0.157342000000118E+001  0.316151700001366E+001  0.332079400038868E+000      24077 -0.452669218954304E+000  0.000000000000000E+000  0.000000000000000E+000  0.000000000000000E+000  0.996740438791882E+000  0.000000000000000E+000
   0.154116100000152E+001  0.307142200000080E+001  0.326602399828643E+000      24399 -0.460888121913861E+000  0.000000000000000E+000  0.000000000000000E+000  0.000000000000000E+000  0.996066370662677E+000  0.000000000000000E+000
   0.186260599999915E+001  0.333164700001213E+001  0.353925899860322E+000      23673 -0.395685916605178E+000  0.000000000000000E+000  0.000000000000000E+000  0.000000000000000E+000  0.996150475535437E+000  0.000000000000000E+000
   0.178065199999915E+001  0.329163700003277E+001  0.351252100425631E+000      23541 -0.438751706333696E+000  0.000000000000000E+000  0.000000000000000E+000  0.000000000000000E+000  0.995826422192092E+000  0.000000000000000E+000
   0.182173699999948E+001  0.331164899995933E+001  0.352771500310063E+000      24381 -0.428497555859615E+000  0.000000000000000E+000  0.000000000000000E+000  0.000000000000000E+000  0.995624746223139E+000  0.000000000000000E+000
   0.175170199999982E+001  0.337531800003277E+001  0.354072199964970E+000      23824 -0.446716333151304E+000  0.000000000000000E+000  0.000000000000000E+000  0.000000000000000E+000  0.995863302299673E+000  0.000000000000000E+000
   0.179951800000016E+001  0.334835800002871E+001  0.354668500204325E+000      23221 -0.436713194392318E+000  0.000000000000000E+000  0.000000000000000E+000  0.000000000000000E+000  0.995803484581084E+000  0.000000000000000E+000
   0.171075600000118E+001  0.335531500000012E+001  0.350589300097376E+000      24287 -0.474615578141515E+000  0.000000000000000E+000  0.000000000000000E+000  0.000000000000000E+000  0.995937617453424E+000  0.000000000000000E+000
   0.175853299999948E+001  0.332836100001264E+001  0.352412699941695E+000      24397 -0.445822745864547E+000  0.000000000000000E+000  0.000000000000000E+000  0.000000000000000E+000  0.995835718339911E+000  0.000000000000000E+000
   0.175870300000016E+001  0.342873000002871E+001  0.356486799990028E+000      23643 -0.448610491110178E+000  0.000000000000000E+000  0.000000000000000E+000  0.000000000000000E+000  0.995459522612659E+000  0.000000000000000E+000
   0.170451700000050E+001  0.340226499995933E+001  0.351142799788833E+000      22959 -0.458963592490065E+000  0.000000000000000E+000  0.000000000000000E+000  0.000000000000000E+000  0.996086814034173E+000  0.000000000000000E+000
   0.181261700000118E+001  0.345519300002465E+001  0.360376599771768E+000      23157 -0.430590171407051E+000  0.000000000000000E+000  0.000000000000000E+000  0.000000000000000E+000  0.996061583468707E+000  0.000000000000000E+000
   0.188086099999982E+001  0.338836899998657E+001  0.357459200197488E+000      22851 -0.374674756718590E+000  0.000000000000000E+000  0.000000000000000E+000  0.000000000000000E+000  0.996667725910572E+000  0.000000000000000E+000
   0.184029800000050E+001  0.336837899999470E+001  0.356050800116569E+000      24437 -0.407808284212811E+000  0.000000000000000E+000  0.000000000000000E+000  0.000000000000000E+000  0.996109775482393E+000  0.000000000000000E+000
   0.184649600000118E+001  0.342179899999334E+001  0.359141299777567E+000      24220 -0.414793664222790E+000  0.000000000000000E+000  0.000000000000000E+000  0.000000000000000E+000  0.995996264903688E+000  0.000000000000000E+000
   0.190033200000016E+001  0.344887500002684E+001  0.361191600213408E+000      23609 -0.367966751515157E+000  0.000000000000000E+000  0.000000000000000E+000  0.000000000000000E+000  0.996594658499762E+000  0.000000000000000E+000
   0.192564499999982E+001  0.342240999999419E+001  0.358807499857277E+000      25222 -0.366551702360702E+000  0.000000000000000E+000  0.000000000000000E+000  0.000000000000000E+000  0.996525261868398E+000  0.000000000000000E+000
   0.186640100000152E+001  0.348228499997625E+001  0.363145400545746E+000      23695 -0.405771140491335E+000  0.000000000000000E+000  0.000000000000000E+000  0.000000000000000E+000  0.996281139670493E+000  0.000000000000000E+000
   0.178822999999915E+001  0.324466499999334E+001  0.348832500672340E+000      23584 -0.431557539184350E+000  0.000000000000000E+000  0.000000000000000E+000  0.000000000000000E+000  0.995857369460507E+000  0.000000000000000E+000
   0.180597000000050E+001  0.340177200001077E+001  0.357582899888426E+000      23886 -0.432852903921462E+000  0.000000000000000E+000  0.000000000000000E+000  0.000000000000000E+000  0.995879440508376E+000  0.000000000000000E+000
   0.190750799999948E+001  0.336508499998657E+001  0.355462600109160E+000      25371 -0.370469082081334E+000  0.000000000000000E+000  0.000000000000000E+000  0.000000000000000E+000  0.996616011141648E+000  0.000000000000000E+000
   0.197017699999813E+001  0.334688099997134E+001  0.351495500088066E+000      25280 -0.336825711123761E+000  0.000000000000000E+000  0.000000000000000E+000  0.000000000000000E+000  0.996907669736357E+000  0.000000000000000E+000
   0.189853199999915E+001  0.333673099999064E+001  0.353460300675213E+000      25312 -0.372511985418607E+000  0.000000000000000E+000  0.000000000000000E+000  0.000000000000000E+000  0.996585285774867E+000  0.000000000000000E+000
   0.193438899999813E+001  0.334179499999909E+001  0.352886199844003E+000      23759 -0.370251452359776E+000  0.000000000000000E+000  0.000000000000000E+000  0.000000000000000E+000  0.996530450151013E+000  0.000000000000000E+000
   0.191755099999813E+001  0.328767100000942E+001  0.349423300100595E+000      23422 -0.362608896280384E+000  0.000000000000000E+000  0.000000000000000E+000  0.000000000000000E+000  0.996655505620965E+000  0.000000000000000E+000
   0.195122799999881E+001  0.339591699997354E+001  0.356374700007558E+000      23508 -0.351399208687945E+000  0.000000000000000E+000  0.000000000000000E+000  0.000000000000000E+000  0.996628734855936E+000  0.000000000000000E+000
   0.172434199999915E+001  0.326138800001399E+001  0.348099799781531E+000      24251 -0.494378397379087E+000  0.000000000000000E+000  0.000000000000000E+000  0.000000000000000E+000  0.995463848179919E+000  0.000000000000000E+000
   0.171736600000016E+001  0.330835000000638E+001  0.349587199973762E+000      23186 -0.464282731391501E+000  0.000000000000000E+000  0.000000000000000E+000  0.000000000000000E+000  0.995931221951869E+000  0.000000000000000E+000
   0.146915699999975E+001  0.346989600000640E+001  0.288728500383854E+000      23544  0.116295726932166E+000  0.000000000000000E+000  0.000000000000000E+000  0.000000000000000E+000  0.100855090044343E+001  0.000000000000000E+000
   0.153227400000072E+001  0.341626200001028E+001  0.317855300158292E+000      22890 -0.227373384550938E+000  0.000000000000000E+000  0.000000000000000E+000  0.000000000000000E+000  0.100116414405081E+001  0.000000000000000E+000
   0.148826900000000E+001  0.341316099999117E+001  0.302968900016457E+000      24396 -0.730693117135902E-001  0.000000000000000E+000  0.000000000000000E+000  0.000000000000000E+000  0.100521614599519E+001  0.000000000000000E+000
   0.151132799999999E+001  0.347272399999607E+001  0.306373599960715E+000      24474 -0.451294770178002E-001  0.000000000000000E+000  0.000000000000000E+000  0.000000000000000E+000  0.100459882000646E+001  0.000000000000000E+000
   0.144065399999976E+001  0.336274599998897E+001  0.288847799781531E+000      24248  0.114671590461194E+000  0.000000000000000E+000  0.000000000000000E+000  0.000000000000000E+000  0.100852051927523E+001  0.000000000000000E+000
   0.147459699999968E+001  0.337782999999556E+001  0.301273600052953E+000      24368 -0.116270832556058E+000  0.000000000000000E+000  0.000000000000000E+000  0.000000000000000E+000  0.100379097091758E+001  0.000000000000000E+000
   0.147065500000025E+001  0.333057000000859E+001  0.303620999991000E+000      24903 -0.177551814908018E+000  0.000000000000000E+000  0.000000000000000E+000  0.000000000000000E+000  0.100410724539490E+001  0.000000000000000E+000